nqpoint: 427
npath: 6
segment_nqpoint:
- 95
- 34
- 101
- 82
- 67
- 48
labels:
- [ '$\Gamma$', '$\mathrm{X}$' ]
- [ '$\mathrm{X}$', '$\mathrm{U}$' ]
- [ '$\mathrm{K}$', '$\Gamma$' ]
- [ '$\Gamma$', '$\mathrm{L}$' ]
- [ '$\mathrm{L}$', '$\mathrm{W}$' ]
- [ '$\mathrm{W}$', '$\mathrm{X}$' ]
reciprocal_lattice:
- [  -0.17573761,   0.17573761,   0.17573761 ] # a*
- [   0.17573761,  -0.17573761,   0.17573761 ] # b*
- [   0.17573761,   0.17573761,  -0.17573761 ] # c*
natom: 2
lattice:
- [     0.000000000000000,     2.845150738087850,     2.845150738087850 ] # a
- [     2.845150738087850,     0.000000000000000,     2.845150738087850 ] # b
- [     2.845150738087850,     2.845150738087850,     0.000000000000000 ] # c
points:
- symbol: Na # 1
  coordinates: [  0.000000000000000,  0.000000000000000,  0.000000000000000 ]
  mass: 22.989769
- symbol: Cl # 2
  coordinates: [  0.499999999999991,  0.499999999999991,  0.499999999999991 ]
  mass: 35.453000

phonon:
- q-position: [    0.0000000,    0.0000000,    0.0000000 ]
  distance:    0.0000000
  band:
  - # 1
    frequency:   -0.0240773170
  - # 2
    frequency:   -0.0240773170
  - # 3
    frequency:   -0.0149374554
  - # 4
    frequency:    4.5955903964
  - # 5
    frequency:    4.5955903964
  - # 6
    frequency:    7.4075191593

- q-position: [    0.0053191,    0.0000000,    0.0053191 ]
  distance:    0.0018695
  band:
  - # 1
    frequency:    0.0329679739
  - # 2
    frequency:    0.0329679739
  - # 3
    frequency:    0.0872896088
  - # 4
    frequency:    4.5956608711
  - # 5
    frequency:    4.5956608711
  - # 6
    frequency:    7.4068050690

- q-position: [    0.0106383,    0.0000000,    0.0106383 ]
  distance:    0.0037391
  band:
  - # 1
    frequency:    0.0780065923
  - # 2
    frequency:    0.0780065923
  - # 3
    frequency:    0.1764595528
  - # 4
    frequency:    4.5958722222
  - # 5
    frequency:    4.5958722222
  - # 6
    frequency:    7.4046631795

- q-position: [    0.0159574,    0.0000000,    0.0159574 ]
  distance:    0.0056086
  band:
  - # 1
    frequency:    0.1200403692
  - # 2
    frequency:    0.1200403692
  - # 3
    frequency:    0.2651498491
  - # 4
    frequency:    4.5962242306
  - # 5
    frequency:    4.5962242306
  - # 6
    frequency:    7.4010946352

- q-position: [    0.0212766,    0.0000000,    0.0212766 ]
  distance:    0.0074782
  band:
  - # 1
    frequency:    0.1614079188
  - # 2
    frequency:    0.1614079188
  - # 3
    frequency:    0.3536557428
  - # 4
    frequency:    4.5967165313
  - # 5
    frequency:    4.5967165313
  - # 6
    frequency:    7.3961013440

- q-position: [    0.0265957,    0.0000000,    0.0265957 ]
  distance:    0.0093477
  band:
  - # 1
    frequency:    0.2024890490
  - # 2
    frequency:    0.2024890490
  - # 3
    frequency:    0.4420144697
  - # 4
    frequency:    4.5973486138
  - # 5
    frequency:    4.5973486138
  - # 6
    frequency:    7.3896859788

- q-position: [    0.0319149,    0.0000000,    0.0319149 ]
  distance:    0.0112173
  band:
  - # 1
    frequency:    0.2433979608
  - # 2
    frequency:    0.2433979608
  - # 3
    frequency:    0.5302209284
  - # 4
    frequency:    4.5981198224
  - # 5
    frequency:    4.5981198224
  - # 6
    frequency:    7.3818519789

- q-position: [    0.0372340,    0.0000000,    0.0372340 ]
  distance:    0.0130868
  band:
  - # 1
    frequency:    0.2841767695
  - # 2
    frequency:    0.2841767695
  - # 3
    frequency:    0.6182580120
  - # 4
    frequency:    4.5990293568
  - # 5
    frequency:    4.5990293568
  - # 6
    frequency:    7.3726035520

- q-position: [    0.0425532,    0.0000000,    0.0425532 ]
  distance:    0.0149564
  band:
  - # 1
    frequency:    0.3248411595
  - # 2
    frequency:    0.3248411595
  - # 3
    frequency:    0.7061041637
  - # 4
    frequency:    4.6000762730
  - # 5
    frequency:    4.6000762730
  - # 6
    frequency:    7.3619456770

- q-position: [    0.0478723,    0.0000000,    0.0478723 ]
  distance:    0.0168259
  band:
  - # 1
    frequency:    0.3653952109
  - # 2
    frequency:    0.3653952109
  - # 3
    frequency:    0.7937358977
  - # 4
    frequency:    4.6012594835
  - # 5
    frequency:    4.6012594835
  - # 6
    frequency:    7.3498841071

- q-position: [    0.0531915,    0.0000000,    0.0531915 ]
  distance:    0.0186955
  band:
  - # 1
    frequency:    0.4058372447
  - # 2
    frequency:    0.4058372447
  - # 3
    frequency:    0.8811288121
  - # 4
    frequency:    4.6025777589
  - # 5
    frequency:    4.6025777589
  - # 6
    frequency:    7.3364253730

- q-position: [    0.0585106,    0.0000000,    0.0585106 ]
  distance:    0.0205650
  band:
  - # 1
    frequency:    0.4461624571
  - # 2
    frequency:    0.4461624571
  - # 3
    frequency:    0.9682580554
  - # 4
    frequency:    4.6040297284
  - # 5
    frequency:    4.6040297284
  - # 6
    frequency:    7.3215767874

- q-position: [    0.0638298,    0.0000000,    0.0638298 ]
  distance:    0.0224346
  band:
  - # 1
    frequency:    0.4863642283
  - # 2
    frequency:    0.4863642283
  - # 3
    frequency:    1.0550985640
  - # 4
    frequency:    4.6056138814
  - # 5
    frequency:    4.6056138814
  - # 6
    frequency:    7.3053464492

- q-position: [    0.0691489,    0.0000000,    0.0691489 ]
  distance:    0.0243041
  band:
  - # 1
    frequency:    0.5264348250
  - # 2
    frequency:    0.5264348250
  - # 3
    frequency:    1.1416251953
  - # 4
    frequency:    4.6073285683
  - # 5
    frequency:    4.6073285683
  - # 6
    frequency:    7.2877432491

- q-position: [    0.0744681,    0.0000000,    0.0744681 ]
  distance:    0.0261737
  band:
  - # 1
    frequency:    0.5663658004
  - # 2
    frequency:    0.5663658004
  - # 3
    frequency:    1.2278128079
  - # 4
    frequency:    4.6091720023
  - # 5
    frequency:    4.6091720023
  - # 6
    frequency:    7.2687768749

- q-position: [    0.0797872,    0.0000000,    0.0797872 ]
  distance:    0.0280432
  band:
  - # 1
    frequency:    0.6061482341
  - # 2
    frequency:    0.6061482341
  - # 3
    frequency:    1.3136363138
  - # 4
    frequency:    4.6111422608
  - # 5
    frequency:    4.6111422608
  - # 6
    frequency:    7.2484578178

- q-position: [    0.0851064,    0.0000000,    0.0851064 ]
  distance:    0.0299128
  band:
  - # 1
    frequency:    0.6457728822
  - # 2
    frequency:    0.6457728822
  - # 3
    frequency:    1.3990707142
  - # 4
    frequency:    4.6132372869
  - # 5
    frequency:    4.6132372869
  - # 6
    frequency:    7.2267973795

- q-position: [    0.0904255,    0.0000000,    0.0904255 ]
  distance:    0.0317823
  band:
  - # 1
    frequency:    0.6852302740
  - # 2
    frequency:    0.6852302740
  - # 3
    frequency:    1.4840911269
  - # 4
    frequency:    4.6154548913
  - # 5
    frequency:    4.6154548913
  - # 6
    frequency:    7.2038076797

- q-position: [    0.0957447,    0.0000000,    0.0957447 ]
  distance:    0.0336519
  band:
  - # 1
    frequency:    0.7245107775
  - # 2
    frequency:    0.7245107775
  - # 3
    frequency:    1.5686728069
  - # 4
    frequency:    4.6177927543
  - # 5
    frequency:    4.6177927543
  - # 6
    frequency:    7.1795016638

- q-position: [    0.1010638,    0.0000000,    0.1010638 ]
  distance:    0.0355214
  band:
  - # 1
    frequency:    0.7636046438
  - # 2
    frequency:    0.7636046438
  - # 3
    frequency:    1.6527911639
  - # 4
    frequency:    4.6202484274
  - # 5
    frequency:    4.6202484274
  - # 6
    frequency:    7.1538931121

- q-position: [    0.1063830,    0.0000000,    0.1063830 ]
  distance:    0.0373910
  band:
  - # 1
    frequency:    0.8025020388
  - # 2
    frequency:    0.8025020388
  - # 3
    frequency:    1.7364217773
  - # 4
    frequency:    4.6228193358
  - # 5
    frequency:    4.6228193358
  - # 6
    frequency:    7.1269966492

- q-position: [    0.1117021,    0.0000000,    0.1117021 ]
  distance:    0.0392605
  band:
  - # 1
    frequency:    0.8411930661
  - # 2
    frequency:    0.8411930661
  - # 3
    frequency:    1.8195404091
  - # 4
    frequency:    4.6255027806
  - # 5
    frequency:    4.6255027806
  - # 6
    frequency:    7.0988277541

- q-position: [    0.1170213,    0.0000000,    0.1170213 ]
  distance:    0.0411301
  band:
  - # 1
    frequency:    0.8796677844
  - # 2
    frequency:    0.8796677844
  - # 3
    frequency:    1.9021230158
  - # 4
    frequency:    4.6282959410
  - # 5
    frequency:    4.6282959410
  - # 6
    frequency:    7.0694027713

- q-position: [    0.1223404,    0.0000000,    0.1223404 ]
  distance:    0.0429996
  band:
  - # 1
    frequency:    0.9179162199
  - # 2
    frequency:    0.9179162199
  - # 3
    frequency:    1.9841457597
  - # 4
    frequency:    4.6311958769
  - # 5
    frequency:    4.6311958769
  - # 6
    frequency:    7.0387389224

- q-position: [    0.1276596,    0.0000000,    0.1276596 ]
  distance:    0.0448692
  band:
  - # 1
    frequency:    0.9559283769
  - # 2
    frequency:    0.9559283769
  - # 3
    frequency:    2.0655850187
  - # 4
    frequency:    4.6341995314
  - # 5
    frequency:    4.6341995314
  - # 6
    frequency:    7.0068543189

- q-position: [    0.1329787,    0.0000000,    0.1329787 ]
  distance:    0.0467387
  band:
  - # 1
    frequency:    0.9936942459
  - # 2
    frequency:    0.9936942459
  - # 3
    frequency:    2.1464173965
  - # 4
    frequency:    4.6373037337
  - # 5
    frequency:    4.6373037337
  - # 6
    frequency:    6.9737679751

- q-position: [    0.1382979,    0.0000000,    0.1382979 ]
  distance:    0.0486083
  band:
  - # 1
    frequency:    1.0312038101
  - # 2
    frequency:    1.0312038101
  - # 3
    frequency:    2.2266197315
  - # 4
    frequency:    4.6405052015
  - # 5
    frequency:    4.6405052015
  - # 6
    frequency:    6.9394998232

- q-position: [    0.1436170,    0.0000000,    0.1436170 ]
  distance:    0.0504778
  band:
  - # 1
    frequency:    1.0684470516
  - # 2
    frequency:    1.0684470516
  - # 3
    frequency:    2.3061691060
  - # 4
    frequency:    4.6438005447
  - # 5
    frequency:    4.6438005447
  - # 6
    frequency:    6.9040707276

- q-position: [    0.1489362,    0.0000000,    0.1489362 ]
  distance:    0.0523474
  band:
  - # 1
    frequency:    1.1054139555
  - # 2
    frequency:    1.1054139555
  - # 3
    frequency:    2.3850428540
  - # 4
    frequency:    4.6471862676
  - # 5
    frequency:    4.6471862676
  - # 6
    frequency:    6.8675025020

- q-position: [    0.1542553,    0.0000000,    0.1542553 ]
  distance:    0.0542169
  band:
  - # 1
    frequency:    1.1420945154
  - # 2
    frequency:    1.1420945154
  - # 3
    frequency:    2.4632185700
  - # 4
    frequency:    4.6506587727
  - # 5
    frequency:    4.6506587727
  - # 6
    frequency:    6.8298179258

- q-position: [    0.1595745,    0.0000000,    0.1595745 ]
  distance:    0.0560865
  band:
  - # 1
    frequency:    1.1784787366
  - # 2
    frequency:    1.1784787366
  - # 3
    frequency:    2.5406741163
  - # 4
    frequency:    4.6542143637
  - # 5
    frequency:    4.6542143637
  - # 6
    frequency:    6.7910407629

- q-position: [    0.1648936,    0.0000000,    0.1648936 ]
  distance:    0.0579560
  band:
  - # 1
    frequency:    1.2145566405
  - # 2
    frequency:    1.2145566405
  - # 3
    frequency:    2.6173876306
  - # 4
    frequency:    4.6578492490
  - # 5
    frequency:    4.6578492490
  - # 6
    frequency:    6.7511957807

- q-position: [    0.1702128,    0.0000000,    0.1702128 ]
  distance:    0.0598256
  band:
  - # 1
    frequency:    1.2503182678
  - # 2
    frequency:    1.2503182678
  - # 3
    frequency:    2.6933375331
  - # 4
    frequency:    4.6615595451
  - # 5
    frequency:    4.6615595451
  - # 6
    frequency:    6.7103087707

- q-position: [    0.1755319,    0.0000000,    0.1755319 ]
  distance:    0.0616951
  band:
  - # 1
    frequency:    1.2857536825
  - # 2
    frequency:    1.2857536825
  - # 3
    frequency:    2.7685025335
  - # 4
    frequency:    4.6653412802
  - # 5
    frequency:    4.6653412802
  - # 6
    frequency:    6.6684065697

- q-position: [    0.1808511,    0.0000000,    0.1808511 ]
  distance:    0.0635647
  band:
  - # 1
    frequency:    1.3208529753
  - # 2
    frequency:    1.3208529753
  - # 3
    frequency:    2.8428616371
  - # 4
    frequency:    4.6691903981
  - # 5
    frequency:    4.6691903981
  - # 6
    frequency:    6.6255170832

- q-position: [    0.1861702,    0.0000000,    0.1861702 ]
  distance:    0.0654342
  band:
  - # 1
    frequency:    1.3556062669
  - # 2
    frequency:    1.3556062669
  - # 3
    frequency:    2.9163941514
  - # 4
    frequency:    4.6731027619
  - # 5
    frequency:    4.6731027619
  - # 6
    frequency:    6.5816693090

- q-position: [    0.1914894,    0.0000000,    0.1914894 ]
  distance:    0.0673038
  band:
  - # 1
    frequency:    1.3900037117
  - # 2
    frequency:    1.3900037117
  - # 3
    frequency:    2.9890796915
  - # 4
    frequency:    4.6770741578
  - # 5
    frequency:    4.6770741578
  - # 6
    frequency:    6.5368933622

- q-position: [    0.1968085,    0.0000000,    0.1968085 ]
  distance:    0.0691733
  band:
  - # 1
    frequency:    1.4240355014
  - # 2
    frequency:    1.4240355014
  - # 3
    frequency:    3.0608981863
  - # 4
    frequency:    4.6811002995
  - # 5
    frequency:    4.6811002995
  - # 6
    frequency:    6.4912205025

- q-position: [    0.2021277,    0.0000000,    0.2021277 ]
  distance:    0.0710429
  band:
  - # 1
    frequency:    1.4576918686
  - # 2
    frequency:    1.4576918686
  - # 3
    frequency:    3.1318298828
  - # 4
    frequency:    4.6851768317
  - # 5
    frequency:    4.6851768317
  - # 6
    frequency:    6.4446831614

- q-position: [    0.2074468,    0.0000000,    0.2074468 ]
  distance:    0.0729124
  band:
  - # 1
    frequency:    1.4909630906
  - # 2
    frequency:    1.4909630906
  - # 3
    frequency:    3.2018553518
  - # 4
    frequency:    4.6892993349
  - # 5
    frequency:    4.6892993349
  - # 6
    frequency:    6.3973149715

- q-position: [    0.2127660,    0.0000000,    0.2127660 ]
  distance:    0.0747820
  band:
  - # 1
    frequency:    1.5238394930
  - # 2
    frequency:    1.5238394930
  - # 3
    frequency:    3.2709554917
  - # 4
    frequency:    4.6934633296
  - # 5
    frequency:    4.6934633296
  - # 6
    frequency:    6.3491507975

- q-position: [    0.2180851,    0.0000000,    0.2180851 ]
  distance:    0.0766515
  band:
  - # 1
    frequency:    1.5563114540
  - # 2
    frequency:    1.5563114540
  - # 3
    frequency:    3.3391115328
  - # 4
    frequency:    4.6976642803
  - # 5
    frequency:    4.6976642803
  - # 6
    frequency:    6.3002267676

- q-position: [    0.2234043,    0.0000000,    0.2234043 ]
  distance:    0.0785211
  band:
  - # 1
    frequency:    1.5883694079
  - # 2
    frequency:    1.5883694079
  - # 3
    frequency:    3.4063050408
  - # 4
    frequency:    4.7018976004
  - # 5
    frequency:    4.7018976004
  - # 6
    frequency:    6.2505803071

- q-position: [    0.2287234,    0.0000000,    0.2287234 ]
  distance:    0.0803906
  band:
  - # 1
    frequency:    1.6200038497
  - # 2
    frequency:    1.6200038497
  - # 3
    frequency:    3.4725179200
  - # 4
    frequency:    4.7061586569
  - # 5
    frequency:    4.7061586569
  - # 6
    frequency:    6.2002501726

- q-position: [    0.2340426,    0.0000000,    0.2340426 ]
  distance:    0.0822602
  band:
  - # 1
    frequency:    1.6512053390
  - # 2
    frequency:    1.6512053390
  - # 3
    frequency:    3.5377324160
  - # 4
    frequency:    4.7104427745
  - # 5
    frequency:    4.7104427745
  - # 6
    frequency:    6.1492764889

- q-position: [    0.2393617,    0.0000000,    0.2393617 ]
  distance:    0.0841297
  band:
  - # 1
    frequency:    1.6819645044
  - # 2
    frequency:    1.6819645044
  - # 3
    frequency:    3.6019311174
  - # 4
    frequency:    4.7147452407
  - # 5
    frequency:    4.7147452407
  - # 6
    frequency:    6.0977007851

- q-position: [    0.2446809,    0.0000000,    0.2446809 ]
  distance:    0.0859993
  band:
  - # 1
    frequency:    1.7122720482
  - # 2
    frequency:    1.7122720482
  - # 3
    frequency:    3.6650969577
  - # 4
    frequency:    4.7190613109
  - # 5
    frequency:    4.7190613109
  - # 6
    frequency:    6.0455660342

- q-position: [    0.2500000,    0.0000000,    0.2500000 ]
  distance:    0.0878688
  band:
  - # 1
    frequency:    1.7421187505
  - # 2
    frequency:    1.7421187505
  - # 3
    frequency:    3.7272132153
  - # 4
    frequency:    4.7233862128
  - # 5
    frequency:    4.7233862128
  - # 6
    frequency:    5.9929166928

- q-position: [    0.2553191,    0.0000000,    0.2553191 ]
  distance:    0.0897384
  band:
  - # 1
    frequency:    1.7714954741
  - # 2
    frequency:    1.7714954741
  - # 3
    frequency:    3.7882635137
  - # 4
    frequency:    4.7277151514
  - # 5
    frequency:    4.7277151514
  - # 6
    frequency:    5.9397987420

- q-position: [    0.2606383,    0.0000000,    0.2606383 ]
  distance:    0.0916079
  band:
  - # 1
    frequency:    1.8003931691
  - # 2
    frequency:    1.8003931691
  - # 3
    frequency:    3.8482318196
  - # 4
    frequency:    4.7320433147
  - # 5
    frequency:    4.7320433147
  - # 6
    frequency:    5.8862597301

- q-position: [    0.2659574,    0.0000000,    0.2659574 ]
  distance:    0.0934775
  band:
  - # 1
    frequency:    1.8288028780
  - # 2
    frequency:    1.8288028780
  - # 3
    frequency:    3.9071024400
  - # 4
    frequency:    4.7363658778
  - # 5
    frequency:    4.7363658778
  - # 6
    frequency:    5.8323488166

- q-position: [    0.2712766,    0.0000000,    0.2712766 ]
  distance:    0.0953470
  band:
  - # 1
    frequency:    1.8567157403
  - # 2
    frequency:    1.8567157403
  - # 3
    frequency:    3.9648600174
  - # 4
    frequency:    4.7406780091
  - # 5
    frequency:    4.7406780091
  - # 6
    frequency:    5.7781168177

- q-position: [    0.2765957,    0.0000000,    0.2765957 ]
  distance:    0.0972166
  band:
  - # 1
    frequency:    1.8841229975
  - # 2
    frequency:    1.8841229975
  - # 3
    frequency:    4.0214895222
  - # 4
    frequency:    4.7449748748
  - # 5
    frequency:    4.7449748748
  - # 6
    frequency:    5.7236162530

- q-position: [    0.2819149,    0.0000000,    0.2819149 ]
  distance:    0.0990861
  band:
  - # 1
    frequency:    1.9110159983
  - # 2
    frequency:    1.9110159983
  - # 3
    frequency:    4.0769762417
  - # 4
    frequency:    4.7492516445
  - # 5
    frequency:    4.7492516445
  - # 6
    frequency:    5.6689013959

- q-position: [    0.2872340,    0.0000000,    0.2872340 ]
  distance:    0.1009557
  band:
  - # 1
    frequency:    1.9373862038
  - # 2
    frequency:    1.9373862038
  - # 3
    frequency:    4.1313057639
  - # 4
    frequency:    4.7535034967
  - # 5
    frequency:    4.7535034967
  - # 6
    frequency:    5.6140283260

- q-position: [    0.2925532,    0.0000000,    0.2925532 ]
  distance:    0.1028252
  band:
  - # 1
    frequency:    1.9632251921
  - # 2
    frequency:    1.9632251921
  - # 3
    frequency:    4.1844639538
  - # 4
    frequency:    4.7577256240
  - # 5
    frequency:    4.7577256240
  - # 6
    frequency:    5.5590549882

- q-position: [    0.2978723,    0.0000000,    0.2978723 ]
  distance:    0.1046947
  band:
  - # 1
    frequency:    1.9885246644
  - # 2
    frequency:    1.9885246644
  - # 3
    frequency:    4.2364369185
  - # 4
    frequency:    4.7619132383
  - # 5
    frequency:    4.7619132383
  - # 6
    frequency:    5.5040412588

- q-position: [    0.3031915,    0.0000000,    0.3031915 ]
  distance:    0.1065643
  band:
  - # 1
    frequency:    2.0132764493
  - # 2
    frequency:    2.0132764493
  - # 3
    frequency:    4.2872109547
  - # 4
    frequency:    4.7660615770
  - # 5
    frequency:    4.7660615770
  - # 6
    frequency:    5.4490490266

- q-position: [    0.3085106,    0.0000000,    0.3085106 ]
  distance:    0.1084338
  band:
  - # 1
    frequency:    2.0374725089
  - # 2
    frequency:    2.0374725089
  - # 3
    frequency:    4.3367724678
  - # 4
    frequency:    4.7701659079
  - # 5
    frequency:    4.7701659079
  - # 6
    frequency:    5.3941422975

- q-position: [    0.3138298,    0.0000000,    0.3138298 ]
  distance:    0.1103034
  band:
  - # 1
    frequency:    2.0611049433
  - # 2
    frequency:    2.0611049433
  - # 3
    frequency:    4.3851078435
  - # 4
    frequency:    4.7742215350
  - # 5
    frequency:    4.7742215350
  - # 6
    frequency:    5.3393873419

- q-position: [    0.3191489,    0.0000000,    0.3191489 ]
  distance:    0.1121729
  band:
  - # 1
    frequency:    2.0841659964
  - # 2
    frequency:    2.0841659964
  - # 3
    frequency:    4.4322032348
  - # 4
    frequency:    4.7782238041
  - # 5
    frequency:    4.7782238041
  - # 6
    frequency:    5.2848529184

- q-position: [    0.3244681,    0.0000000,    0.3244681 ]
  distance:    0.1140425
  band:
  - # 1
    frequency:    2.1066480610
  - # 2
    frequency:    2.1066480610
  - # 3
    frequency:    4.4780441955
  - # 4
    frequency:    4.7821681084
  - # 5
    frequency:    4.7821681084
  - # 6
    frequency:    5.2306106462

- q-position: [    0.3297872,    0.0000000,    0.3297872 ]
  distance:    0.1159120
  band:
  - # 1
    frequency:    2.1285436840
  - # 2
    frequency:    2.1285436840
  - # 3
    frequency:    4.5226150072
  - # 4
    frequency:    4.7860498941
  - # 5
    frequency:    4.7860498941
  - # 6
    frequency:    5.1767356721

- q-position: [    0.3351064,    0.0000000,    0.3351064 ]
  distance:    0.1177816
  band:
  - # 1
    frequency:    2.1498455716
  - # 2
    frequency:    2.1498455716
  - # 3
    frequency:    4.5658973596
  - # 4
    frequency:    4.7898646661
  - # 5
    frequency:    4.7898646661
  - # 6
    frequency:    5.1233079760

- q-position: [    0.3404255,    0.0000000,    0.3404255 ]
  distance:    0.1196511
  band:
  - # 1
    frequency:    2.1705465946
  - # 2
    frequency:    2.1705465946
  - # 3
    frequency:    4.6078675154
  - # 4
    frequency:    4.7936079936
  - # 5
    frequency:    4.7936079936
  - # 6
    frequency:    5.0704151789

- q-position: [    0.3457447,    0.0000000,    0.3457447 ]
  distance:    0.1215207
  band:
  - # 1
    frequency:    2.1906397933
  - # 2
    frequency:    2.1906397933
  - # 3
    frequency:    4.6484894588
  - # 4
    frequency:    4.7972755156
  - # 5
    frequency:    4.7972755156
  - # 6
    frequency:    5.0181593535

- q-position: [    0.3510638,    0.0000000,    0.3510638 ]
  distance:    0.1233902
  band:
  - # 1
    frequency:    2.2101183825
  - # 2
    frequency:    2.2101183825
  - # 3
    frequency:    4.6876953710
  - # 4
    frequency:    4.8008629467
  - # 5
    frequency:    4.8008629467
  - # 6
    frequency:    4.9666764926

- q-position: [    0.3563830,    0.0000000,    0.3563830 ]
  distance:    0.1252598
  band:
  - # 1
    frequency:    2.2289757568
  - # 2
    frequency:    2.2289757568
  - # 3
    frequency:    4.7253143146
  - # 4
    frequency:    4.8043660827
  - # 5
    frequency:    4.8043660827
  - # 6
    frequency:    4.9162077515

- q-position: [    0.3617021,    0.0000000,    0.3617021 ]
  distance:    0.1271293
  band:
  - # 1
    frequency:    2.2472054952
  - # 2
    frequency:    2.2472054952
  - # 3
    frequency:    4.7606714373
  - # 4
    frequency:    4.8077808062
  - # 5
    frequency:    4.8077808062
  - # 6
    frequency:    4.8675001512

- q-position: [    0.3670213,    0.0000000,    0.3670213 ]
  distance:    0.1289989
  band:
  - # 1
    frequency:    2.2648013658
  - # 2
    frequency:    2.2648013658
  - # 3
    frequency:    4.7869653127
  - # 4
    frequency:    4.8111030917
  - # 5
    frequency:    4.8111030917
  - # 6
    frequency:    4.8274291237

- q-position: [    0.3723404,    0.0000000,    0.3723404 ]
  distance:    0.1308684
  band:
  - # 1
    frequency:    2.2817573308
  - # 2
    frequency:    2.2817573308
  - # 3
    frequency:    4.7614925019
  - # 4
    frequency:    4.8143290117
  - # 5
    frequency:    4.8143290117
  - # 6
    frequency:    4.8387738126

- q-position: [    0.3776596,    0.0000000,    0.3776596 ]
  distance:    0.1327380
  band:
  - # 1
    frequency:    2.2980675506
  - # 2
    frequency:    2.2980675506
  - # 3
    frequency:    4.7167008901
  - # 4
    frequency:    4.8174547418
  - # 5
    frequency:    4.8174547418
  - # 6
    frequency:    4.8691635739

- q-position: [    0.3829787,    0.0000000,    0.3829787 ]
  distance:    0.1346075
  band:
  - # 1
    frequency:    2.3137263888
  - # 2
    frequency:    2.3137263888
  - # 3
    frequency:    4.6713361498
  - # 4
    frequency:    4.8204765658
  - # 5
    frequency:    4.8204765658
  - # 6
    frequency:    4.8999313223

- q-position: [    0.3882979,    0.0000000,    0.3882979 ]
  distance:    0.1364771
  band:
  - # 1
    frequency:    2.3287284157
  - # 2
    frequency:    2.3287284157
  - # 3
    frequency:    4.6267981156
  - # 4
    frequency:    4.8233908816
  - # 5
    frequency:    4.8233908816
  - # 6
    frequency:    4.9297569371

- q-position: [    0.3936170,    0.0000000,    0.3936170 ]
  distance:    0.1383466
  band:
  - # 1
    frequency:    2.3430684132
  - # 2
    frequency:    2.3430684132
  - # 3
    frequency:    4.5834263292
  - # 4
    frequency:    4.8261942057
  - # 5
    frequency:    4.8261942057
  - # 6
    frequency:    4.9583814684

- q-position: [    0.3989362,    0.0000000,    0.3989362 ]
  distance:    0.1402162
  band:
  - # 1
    frequency:    2.3567413785
  - # 2
    frequency:    2.3567413785
  - # 3
    frequency:    4.5413896761
  - # 4
    frequency:    4.8288831786
  - # 5
    frequency:    4.8288831786
  - # 6
    frequency:    4.9857172179

- q-position: [    0.4042553,    0.0000000,    0.4042553 ]
  distance:    0.1420857
  band:
  - # 1
    frequency:    2.3697425278
  - # 2
    frequency:    2.3697425278
  - # 3
    frequency:    4.5008097842
  - # 4
    frequency:    4.8314545698
  - # 5
    frequency:    4.8314545698
  - # 6
    frequency:    5.0117240278

- q-position: [    0.4095745,    0.0000000,    0.4095745 ]
  distance:    0.1439553
  band:
  - # 1
    frequency:    2.3820673002
  - # 2
    frequency:    2.3820673002
  - # 3
    frequency:    4.4617906066
  - # 4
    frequency:    4.8339052824
  - # 5
    frequency:    4.8339052824
  - # 6
    frequency:    5.0363793514

- q-position: [    0.4148936,    0.0000000,    0.4148936 ]
  distance:    0.1458248
  band:
  - # 1
    frequency:    2.3937113610
  - # 2
    frequency:    2.3937113610
  - # 3
    frequency:    4.4244277792
  - # 4
    frequency:    4.8362323578
  - # 5
    frequency:    4.8362323578
  - # 6
    frequency:    5.0596685173

- q-position: [    0.4202128,    0.0000000,    0.4202128 ]
  distance:    0.1476944
  band:
  - # 1
    frequency:    2.4046706052
  - # 2
    frequency:    2.4046706052
  - # 3
    frequency:    4.3888120364
  - # 4
    frequency:    4.8384329806
  - # 5
    frequency:    4.8384329806
  - # 6
    frequency:    5.0815809049

- q-position: [    0.4255319,    0.0000000,    0.4255319 ]
  distance:    0.1495639
  band:
  - # 1
    frequency:    2.4149411606
  - # 2
    frequency:    2.4149411606
  - # 3
    frequency:    4.3550304879
  - # 4
    frequency:    4.8405044823
  - # 5
    frequency:    4.8405044823
  - # 6
    frequency:    5.1021082296

- q-position: [    0.4308511,    0.0000000,    0.4308511 ]
  distance:    0.1514335
  band:
  - # 1
    frequency:    2.4245193909
  - # 2
    frequency:    2.4245193909
  - # 3
    frequency:    4.3231670039
  - # 4
    frequency:    4.8424443457
  - # 5
    frequency:    4.8424443457
  - # 6
    frequency:    5.1212436941

- q-position: [    0.4361702,    0.0000000,    0.4361702 ]
  distance:    0.1533030
  band:
  - # 1
    frequency:    2.4334018982
  - # 2
    frequency:    2.4334018982
  - # 3
    frequency:    4.2933021825
  - # 4
    frequency:    4.8442502093
  - # 5
    frequency:    4.8442502093
  - # 6
    frequency:    5.1389815345

- q-position: [    0.4414894,    0.0000000,    0.4414894 ]
  distance:    0.1551726
  band:
  - # 1
    frequency:    2.4415855259
  - # 2
    frequency:    2.4415855259
  - # 3
    frequency:    4.2655131050
  - # 4
    frequency:    4.8459198704
  - # 5
    frequency:    4.8459198704
  - # 6
    frequency:    5.1553167627

- q-position: [    0.4468085,    0.0000000,    0.4468085 ]
  distance:    0.1570421
  band:
  - # 1
    frequency:    2.4490673608
  - # 2
    frequency:    2.4490673608
  - # 3
    frequency:    4.2398729760
  - # 4
    frequency:    4.8474512889
  - # 5
    frequency:    4.8474512889
  - # 6
    frequency:    5.1702450116

- q-position: [    0.4521277,    0.0000000,    0.4521277 ]
  distance:    0.1589117
  band:
  - # 1
    frequency:    2.4558447359
  - # 2
    frequency:    2.4558447359
  - # 3
    frequency:    4.2164507010
  - # 4
    frequency:    4.8488425908
  - # 5
    frequency:    4.8488425908
  - # 6
    frequency:    5.1837624387

- q-position: [    0.4574468,    0.0000000,    0.4574468 ]
  distance:    0.1607812
  band:
  - # 1
    frequency:    2.4619152318
  - # 2
    frequency:    2.4619152318
  - # 3
    frequency:    4.1953104332
  - # 4
    frequency:    4.8500920710
  - # 5
    frequency:    4.8500920710
  - # 6
    frequency:    5.1958656634

- q-position: [    0.4627660,    0.0000000,    0.4627660 ]
  distance:    0.1626508
  band:
  - # 1
    frequency:    2.4672766788
  - # 2
    frequency:    2.4672766788
  - # 3
    frequency:    4.1765111115
  - # 4
    frequency:    4.8511981960
  - # 5
    frequency:    4.8511981960
  - # 6
    frequency:    5.2065517251

- q-position: [    0.4680851,    0.0000000,    0.4680851 ]
  distance:    0.1645203
  band:
  - # 1
    frequency:    2.4719271586
  - # 2
    frequency:    2.4719271586
  - # 3
    frequency:    4.1601060044
  - # 4
    frequency:    4.8521596068
  - # 5