phonopy:
  version: 2.12.0
  frequency_unit_conversion_factor: 15.633302
  symmetry_tolerance: 1.00000e-05
  nac_unit_conversion_factor: 14.399652

physical_unit:
  atomic_mass: "AMU"

space_group:
  type: "Fm-3m"
  number: 225
  Hall_symbol: "-F 4 2 3"

primitive_matrix:
- [  0.000000000000000,  0.500000000000000,  0.500000000000000 ]
- [  0.500000000000000,  0.000000000000000,  0.500000000000000 ]
- [  0.500000000000000,  0.500000000000000,  0.000000000000000 ]

supercell_matrix:
- [   1,   0,   0 ]
- [   0,   1,   0 ]
- [   0,   0,   1 ]

primitive_cell:
  lattice:
  - [     0.000000000000000,     2.845150738087850,     2.845150738087850 ] # a
  - [     2.845150738087850,     0.000000000000000,     2.845150738087850 ] # b
  - [     2.845150738087850,     2.845150738087850,     0.000000000000000 ] # c
  points:
  - symbol: Na # 1
    coordinates: [  0.000000000000000,  0.000000000000000,  0.000000000000000 ]
    mass: 22.989769
  - symbol: Cl # 2
    coordinates: [  0.499999999999991,  0.499999999999991,  0.499999999999991 ]
    mass: 35.453000
  reciprocal_lattice: # without 2pi
  - [    -0.175737613233117,     0.175737613233117,     0.175737613233117 ] # a*
  - [     0.175737613233117,    -0.175737613233117,     0.175737613233117 ] # b*
  - [     0.175737613233117,     0.175737613233117,    -0.175737613233117 ] # c*

unit_cell:
  lattice:
  - [     5.690301476175700,     0.000000000000000,     0.000000000000000 ] # a
  - [     0.000000000000000,     5.690301476175700,     0.000000000000000 ] # b
  - [     0.000000000000000,     0.000000000000000,     5.690301476175700 ] # c
  points:
  - symbol: Na # 1
    coordinates: [  0.000000000000000,  0.000000000000000,  0.000000000000000 ]
    mass: 22.989769
    reduced_to: 1
  - symbol: Na # 2
    coordinates: [  0.000000000000000,  0.499999999999991,  0.499999999999991 ]
    mass: 22.989769
    reduced_to: 1
  - symbol: Na # 3
    coordinates: [  0.499999999999991,  0.000000000000000,  0.499999999999991 ]
    mass: 22.989769
    reduced_to: 1
  - symbol: Na # 4
    coordinates: [  0.499999999999991,  0.499999999999991,  0.000000000000000 ]
    mass: 22.989769
    reduced_to: 1
  - symbol: Cl # 5
    coordinates: [  0.499999999999991,  0.499999999999991,  0.499999999999991 ]
    mass: 35.453000
    reduced_to: 5
  - symbol: Cl # 6
    coordinates: [  0.499999999999991,  0.000000000000000,  0.000000000000000 ]
    mass: 35.453000
    reduced_to: 5
  - symbol: Cl # 7
    coordinates: [  0.000000000000000,  0.499999999999991,  0.000000000000000 ]
    mass: 35.453000
    reduced_to: 5
  - symbol: Cl # 8
    coordinates: [  0.000000000000000,  0.000000000000000,  0.499999999999991 ]
    mass: 35.453000
    reduced_to: 5

supercell:
  lattice:
  - [     5.690301476175700,     0.000000000000000,     0.000000000000000 ] # a
  - [     0.000000000000000,     5.690301476175700,     0.000000000000000 ] # b
  - [     0.000000000000000,     0.000000000000000,     5.690301476175700 ] # c
  points:
  - symbol: Na # 1
    coordinates: [  0.000000000000000,  0.000000000000000,  0.000000000000000 ]
    mass: 22.989769
    reduced_to: 1
  - symbol: Na # 2
    coordinates: [  0.000000000000000,  0.499999999999991,  0.499999999999991 ]
    mass: 22.989769
    reduced_to: 1
  - symbol: Na # 3
    coordinates: [  0.499999999999991,  0.000000000000000,  0.499999999999991 ]
    mass: 22.989769
    reduced_to: 1
  - symbol: Na # 4
    coordinates: [  0.499999999999991,  0.499999999999991,  0.000000000000000 ]
    mass: 22.989769
    reduced_to: 1
  - symbol: Cl # 5
    coordinates: [  0.499999999999991,  0.499999999999991,  0.499999999999991 ]
    mass: 35.453000
    reduced_to: 5
  - symbol: Cl # 6
    coordinates: [  0.499999999999991,  0.000000000000000,  0.000000000000000 ]
    mass: 35.453000
    reduced_to: 5
  - symbol: Cl # 7
    coordinates: [  0.000000000000000,  0.499999999999991,  0.000000000000000 ]
    mass: 35.453000
    reduced_to: 5
  - symbol: Cl # 8
    coordinates: [  0.000000000000000,  0.000000000000000,  0.499999999999991 ]
    mass: 35.453000
    reduced_to: 5

born_effective_charge:
- # 1 (Na)
  - [  1.102687320000001, -0.000000000000000,  0.000000000000000 ]
  - [ -0.000000000000000,  1.102687320000001,  0.000000000000000 ]
  - [  0.000000000000000,  0.000000000000000,  1.102687320000001 ]
- # 2 (Cl)
  - [ -1.102687320000001,  0.000000000000000, -0.000000000000000 ]
  - [  0.000000000000000, -1.102687320000001, -0.000000000000000 ]
  - [  0.000000000000000,  0.000000000000000, -1.102687320000001 ]

dielectric_constant:
  - [  2.480063209999998, -0.000000000000000,  0.000000000000000 ]
  - [ -0.000000000000000,  2.480063209999998,  0.000000000000000 ]
  - [  0.000000000000000,  0.000000000000000,  2.480063209999998 ]

displacements:
- atom:    1
  displacement:
    [   0.0300000000000000,  0.0000000000000000,  0.0000000000000000 ]
  forces:
  - [  -0.0452734600000000, -0.0000000000000000, -0.0000000000000000 ]
  - [  -0.0020897800000000, -0.0000000000000000,  0.0000000000000000 ]
  - [   0.0057575300000000, -0.0000000000000000,  0.0000000000000000 ]
  - [   0.0057575300000000,  0.0000000000000000,  0.0000000000000000 ]
  - [  -0.0017910300000000,  0.0000000000000000,  0.0000000000000000 ]
  - [   0.0286513500000000, -0.0000000000000000,  0.0000000000000000 ]
  - [   0.0044939300000000, -0.0000000000000000,  0.0000000000000000 ]
  - [   0.0044939300000000, -0.0000000000000000,  0.0000000000000000 ]
- atom:    5
  displacement:
    [   0.0300000000000000,  0.0000000000000000,  0.0000000000000000 ]
  forces:
  - [  -0.0015939200000000, -0.0000000000000000,  0.0000000000000000 ]
  - [   0.0288482000000000, -0.0000000000000000,  0.0000000000000000 ]
  - [   0.0046847100000000, -0.0000000000000000,  0.0000000000000000 ]
  - [   0.0046847100000000, -0.0000000000000000,  0.0000000000000000 ]
  - [  -0.0661841000000000,  0.0000000000000000, -0.0000000000000000 ]
  - [  -0.0033384200000000, -0.0000000000000000,  0.0000000000000000 ]
  - [   0.0164494100000000, -0.0000000000000000,  0.0000000000000000 ]
  - [   0.0164494100000000, -0.0000000000000000,  0.0000000000000000 ]
