# Thermal properties / unit cell (natom)

unit:
  temperature:   K
  free_energy:   kJ/mol
  entropy:       J/K/mol
  heat_capacity: J/K/mol

natom: 2
cutoff_frequency: 0.00000
num_modes: 20250
num_integrated_modes: 20247

zero_point_energy:       4.7457687

thermal_properties:
- temperature:         0.0000000
  free_energy:         4.7457687
  entropy:             0.0000000
  heat_capacity:       0.0000000
  energy:              4.7457687

- temperature:        10.0000000
  free_energy:         4.7456717
  entropy:             0.0468147
  heat_capacity:       0.1677737
  energy:              4.7461399

- temperature:        20.0000000
  free_energy:         4.7434015
  entropy:             0.5331431
  heat_capacity:       1.8387904
  energy:              4.7540643

- temperature:        30.0000000
  free_energy:         4.7315850
  entropy:             2.0245694
  heat_capacity:       6.2244022
  energy:              4.7923220

- temperature:        40.0000000
  free_energy:         4.6991854
  entropy:             4.6196043
  heat_capacity:      12.2298933
  energy:              4.8839696

- temperature:        50.0000000
  free_energy:         4.6365347
  entropy:             8.0114385
  heat_capacity:      18.3209344
  energy:              5.0371066

- temperature:        60.0000000
  free_energy:         4.5375119
  entropy:            11.8402734
  heat_capacity:      23.6939983
  energy:              5.2479283

- temperature:        70.0000000
  free_energy:         4.3991758
  entropy:            15.8385975
  heat_capacity:      28.1426643
  energy:              5.5078776

- temperature:        80.0000000
  free_energy:         4.2207391
  entropy:            19.8395655
  heat_capacity:      31.7304094
  energy:              5.8079044

- temperature:        90.0000000
  free_energy:         4.0026949
  entropy:            23.7489028
  heat_capacity:      34.6011366
  energy:              6.1400961

- temperature:       100.0000000
  free_energy:         3.7462316
  entropy:            27.5179608
  heat_capacity:      36.9012233
  energy:              6.4980277

- temperature:       110.0000000
  free_energy:         3.4528771
  entropy:            31.1250790
  heat_capacity:      38.7549933
  energy:              6.8766358

- temperature:       120.0000000
  free_energy:         3.1242916
  entropy:            34.5639958
  heat_capacity:      40.2610743
  energy:              7.2719711

- temperature:       130.0000000
  free_energy:         2.7621509
  entropy:            37.8369465
  heat_capacity:      41.4955522
  energy:              7.6809539

- temperature:       140.0000000
  free_energy:         2.3680838
  entropy:            40.9506305
  heat_capacity:      42.5165489
  energy:              8.1011720

- temperature:       150.0000000
  free_energy:         1.9436398
  entropy:            43.9138835
  heat_capacity:      43.3684284
  energy:              8.5307223

- temperature:       160.0000000
  free_energy:         1.4902754
  entropy:            46.7363479
  heat_capacity:      44.0851870
  energy:              8.9680911

- temperature:       170.0000000
  free_energy:         1.0093497
  entropy:            49.4277292
  heat_capacity:      44.6930439
  energy:              9.4120637

- temperature:       180.0000000
  free_energy:         0.5021265
  entropy:            51.9973937
  heat_capacity:      45.2123758
  energy:              9.8616573

- temperature:       190.0000000
  free_energy:        -0.0302219
  entropy:            54.4541664
  heat_capacity:      45.6591495
  energy:             10.3160697

- temperature:       200.0000000
  free_energy:        -0.5866080
  entropy:            56.8062438
  heat_capacity:      46.0459812
  energy:             10.7746408

- temperature:       210.0000000
  free_energy:        -1.1660230
  entropy:            59.0611728
  heat_capacity:      46.3829221
  energy:             11.2368233

- temperature:       220.0000000
  free_energy:        -1.7675307
  entropy:            61.2258669
  heat_capacity:      46.6780441
  energy:             11.7021600

- temperature:       230.0000000
  free_energy:        -2.3902607
  entropy:            63.3066406
  heat_capacity:      46.9378801
  energy:             12.1702667

- temperature:       240.0000000
  free_energy:        -3.0334030
  entropy:            65.3092537
  heat_capacity:      47.1677561
  energy:             12.6408179

- temperature:       250.0000000
  free_energy:        -3.6962028
  entropy:            67.2389574
  heat_capacity:      47.3720449
  energy:             13.1135366

- temperature:       260.0000000
  free_energy:        -4.3779552
  entropy:            69.1005413
  heat_capacity:      47.5543604
  energy:             13.5881856

- temperature:       270.0000000
  free_energy:        -5.0780011
  entropy:            70.8983769
  heat_capacity:      47.7177082
  energy:             14.0645606

- temperature:       280.0000000
  free_energy:        -5.7957236
  entropy:            72.6364589
  heat_capacity:      47.8646030
  energy:             14.5424849

- temperature:       290.0000000
  free_energy:        -6.5305434
  entropy:            74.3184424
  heat_capacity:      47.9971606
  energy:             15.0218049

- temperature:       300.0000000
  free_energy:        -7.2819166
  entropy:            75.9476765
  heat_capacity:      48.1171704
  energy:             15.5023864

- temperature:       310.0000000
  free_energy:        -8.0493313
  entropy:            77.5272353
  heat_capacity:      48.2261541
  energy:             15.9841116

- temperature:       320.0000000
  free_energy:        -8.8323052
  entropy:            79.0599444
  heat_capacity:      48.3254110
  energy:             16.4668770

- temperature:       330.0000000
  free_energy:        -9.6303828
  entropy:            80.5484057
  heat_capacity:      48.4160564
  energy:             16.9505911

- temperature:       340.0000000
  free_energy:       -10.4431338
  entropy:            81.9950191
  heat_capacity:      48.4990513
  energy:             17.4351727

- temperature:       350.0000000
  free_energy:       -11.2701511
  entropy:            83.4020014
  heat_capacity:      48.5752271
  energy:             17.9205494

- temperature:       360.0000000
  free_energy:       -12.1110486
  entropy:            84.7714041
  heat_capacity:      48.6453062
  energy:             18.4066569

- temperature:       370.0000000
  free_energy:       -12.9654602
  entropy:            86.1051286
  heat_capacity:      48.7099183
  energy:             18.8934373

- temperature:       380.0000000
  free_energy:       -13.8330381
  entropy:            87.4049395
  heat_capacity:      48.7696144
  energy:             19.3808389

- temperature:       390.0000000
  free_energy:       -14.7134515
  entropy:            88.6724777
  heat_capacity:      48.8248781
  energy:             19.8688149

- temperature:       400.0000000
  free_energy:       -15.6063852
  entropy:            89.9092708
  heat_capacity:      48.8761353
  energy:             20.3573231

- temperature:       410.0000000
  free_energy:       -16.5115391
  entropy:            91.1167430
  heat_capacity:      48.9237623
  energy:             20.8463255

- temperature:       420.0000000
  free_energy:       -17.4286268
  entropy:            92.2962241
  heat_capacity:      48.9680924
  energy:             21.3357874

- temperature:       430.0000000
  free_energy:       -18.3573745
  entropy:            93.4489577
  heat_capacity:      49.0094216
  energy:             21.8256773

- temperature:       440.0000000
  free_energy:       -19.2975207
  entropy:            94.5761076
  heat_capacity:      49.0480136
  energy:             22.3159667

- temperature:       450.0000000
  free_energy:       -20.2488150
  entropy:            95.6787650
  heat_capacity:      49.0841039
  energy:             22.8066293

- temperature:       460.0000000
  free_energy:       -21.2110177
  entropy:            96.7579540
  heat_capacity:      49.1179034
  energy:             23.2976411

- temperature:       470.0000000
  free_energy:       -22.1838991
  entropy:            97.8146370
  heat_capacity:      49.1496011
  energy:             23.7889803

- temperature:       480.0000000
  free_energy:       -23.1672385
  entropy:            98.8497191
  heat_capacity:      49.1793672
  energy:             24.2806267

- temperature:       490.0000000
  free_energy:       -24.1608243
  entropy:            99.8640531
  heat_capacity:      49.2073549
  energy:             24.7725617

- temperature:       500.0000000
  free_energy:       -25.1644531
  entropy:           100.8584428
  heat_capacity:      49.2337027
  energy:             25.2647683

- temperature:       510.0000000
  free_energy:       -26.1779292
  entropy:           101.8336469
  heat_capacity:      49.2585358
  energy:             25.7572307

- temperature:       520.0000000
  free_energy:       -27.2010644
  entropy:           102.7903824
  heat_capacity:      49.2819678
  energy:             26.2499344

- temperature:       530.0000000
  free_energy:       -28.2336775
  entropy:           103.7293270
  heat_capacity:      49.3041018
  energy:             26.7428658

- temperature:       540.0000000
  free_energy:       -29.2755938
  entropy:           104.6511227
  heat_capacity:      49.3250317
  energy:             27.2360124

- temperature:       550.0000000
  free_energy:       -30.3266449
  entropy:           105.5563774
  heat_capacity:      49.3448430
  energy:             27.7293627

- temperature:       560.0000000
  free_energy:       -31.3866682
  entropy:           106.4456678
  heat_capacity:      49.3636139
  energy:             28.2229058

- temperature:       570.0000000
  free_energy:       -32.4555068
  entropy:           107.3195413
  heat_capacity:      49.3814156
  energy:             28.7166317

- temperature:       580.0000000
  free_energy:       -33.5330093
  entropy:           108.1785180
  heat_capacity:      49.3983138
  energy:             29.2105311

- temperature:       590.0000000
  free_energy:       -34.6190292
  entropy:           109.0230922
  heat_capacity:      49.4143683
  energy:             29.7045952

- temperature:       600.0000000
  free_energy:       -35.7134247
  entropy:           109.8537343
  heat_capacity:      49.4296343
  energy:             30.1988158

- temperature:       610.0000000
  free_energy:       -36.8160589
  entropy:           110.6708924
  heat_capacity:      49.4441624
  energy:             30.6931854

- temperature:       620.0000000
  free_energy:       -37.9267991
  entropy:           111.4749933
  heat_capacity:      49.4579994
  energy:             31.1876968

- temperature:       630.0000000
  free_energy:       -39.0455166
  entropy:           112.2664442
  heat_capacity:      49.4711882
  energy:             31.6823432

- temperature:       640.0000000
  free_energy:       -40.1720871
  entropy:           113.0456338
  heat_capacity:      49.4837688
  energy:             32.1771185

- temperature:       650.0000000
  free_energy:       -41.3063897
  entropy:           113.8129329
  heat_capacity:      49.4957778
  energy:             32.6720167

- temperature:       660.0000000
  free_energy:       -42.4483073
  entropy:           114.5686963
  heat_capacity:      49.5072493
  energy:             33.1670323

- temperature:       670.0000000
  free_energy:       -43.5977263
  entropy:           115.3132631
  heat_capacity:      49.5182148
  energy:             33.6621600

- temperature:       680.0000000
  free_energy:       -44.7545363
  entropy:           116.0469578
  heat_capacity:      49.5287037
  energy:             34.1573950

- temperature:       690.0000000
  free_energy:       -45.9186302
  entropy:           116.7700910
  heat_capacity:      49.5387430
  energy:             34.6527326

- temperature:       700.0000000
  free_energy:       -47.0899039
  entropy:           117.4829605
  heat_capacity:      49.5483581
  energy:             35.1481684

- temperature:       710.0000000
  free_energy:       -48.2682562
  entropy:           118.1858516
  heat_capacity:      49.5575726
  energy:             35.6436984

- temperature:       720.0000000
  free_energy:       -49.4535886
  entropy:           118.8790378
  heat_capacity:      49.5664082
  energy:             36.1393186

- temperature:       730.0000000
  free_energy:       -50.6458055
  entropy:           119.5627820
  heat_capacity:      49.5748855
  energy:             36.6350254

- temperature:       740.0000000
  free_energy:       -51.8448136
  entropy:           120.2373362
  heat_capacity:      49.5830236
  energy:             37.1308152

- temperature:       750.0000000
  free_energy:       -53.0505224
  entropy:           120.9029429
  heat_capacity:      49.5908403
  energy:             37.6266848

- temperature:       760.0000000
  free_energy:       -54.2628434
  entropy:           121.5598348
  heat_capacity:      49.5983522
  energy:             38.1226310

- temperature:       770.0000000
  free_energy:       -55.4816908
  entropy:           122.2082359
  heat_capacity:      49.6055751
  energy:             38.6186509

- temperature:       780.0000000
  free_energy:       -56.7069806
  entropy:           122.8483617
  heat_capacity:      49.6125234
  energy:             39.1147416

- temperature:       790.0000000
  free_energy:       -57.9386311
  entropy:           123.4804197
  heat_capacity:      49.6192110
  energy:             39.6109005

- temperature:       800.0000000
  free_energy:       -59.1765627
  entropy:           124.1046096
  heat_capacity:      49.6256507
  energy:             40.1071250

- temperature:       810.0000000
  free_energy:       -60.4206977
  entropy:           124.7211240
  heat_capacity:      49.6318546
  energy:             40.6034127

- temperature:       820.0000000
  free_energy:       -61.6709602
  entropy:           125.3301482
  heat_capacity:      49.6378340
  energy:             41.0997613

- temperature:       830.0000000
  free_energy:       -62.9272763
  entropy:           125.9318614
  heat_capacity:      49.6435997
  energy:             41.5961687

- temperature:       840.0000000
  free_energy:       -64.1895737
  entropy:           126.5264361
  heat_capacity:      49.6491617
  energy:             42.0926326

- temperature:       850.0000000
  free_energy:       -65.4577818
  entropy:           127.1140389
  heat_capacity:      49.6545294
  energy:             42.5891513

- temperature:       860.0000000
  free_energy:       -66.7318317
  entropy:           127.6948306
  heat_capacity:      49.6597118
  energy:             43.0857226

- temperature:       870.0000000
  free_energy:       -68.0116562
  entropy:           128.2689668
  heat_capacity:      49.6647174
  energy:             43.5823449

- temperature:       880.0000000
  free_energy:       -69.2971894
  entropy:           128.8365975
  heat_capacity:      49.6695540
  energy:             44.0790164

- temperature:       890.0000000
  free_energy:       -70.5883670
  entropy:           129.3978679
  heat_capacity:      49.6742292
  energy:             44.5757354

- temperature:       900.0000000
  free_energy:       -71.8851260
  entropy:           129.9529183
  heat_capacity:      49.6787501
  energy:             45.0725005

- temperature:       910.0000000
  free_energy:       -73.1874051
  entropy:           130.5018846
  heat_capacity:      49.6831233
  energy:             45.5693100

- temperature:       920.0000000
  free_energy:       -74.4951439
  entropy:           131.0448982
  heat_capacity:      49.6873553
  energy:             46.0661625

- temperature:       930.0000000
  free_energy:       -75.8082836
  entropy:           131.5820862
  heat_capacity:      49.6914521
  energy:             46.5630566

- temperature:       940.0000000
  free_energy:       -77.1267666
  entropy:           132.1135720
  heat_capacity:      49.6954193
  energy:             47.0599911

- temperature:       950.0000000
  free_energy:       -78.4505364
  entropy:           132.6394747
  heat_capacity:      49.6992623
  energy:             47.5569646

- temperature:       960.0000000
  free_energy:       -79.7795379
  entropy:           133.1599102
  heat_capacity:      49.7029863
  energy:             48.0539759

- temperature:       970.0000000
  free_energy:       -81.1137168
  entropy:           133.6749904
  heat_capacity:      49.7065962
  energy:             48.5510239

- temperature:       980.0000000
  free_energy:       -82.4530202
  entropy:           134.1848241
  heat_capacity:      49.7100964
  energy:             49.0481075

- temperature:       990.0000000
  free_energy:       -83.7973961
  entropy:           134.6895168
  heat_capacity:      49.7134916
  energy:             49.5452255

- temperature:      1000.0000000
  free_energy:       -85.1467937
  entropy:           135.1891707
  heat_capacity:      49.7167857
  energy:             50.0423770
