phonopy:
  version: 2.11.0
  frequency_unit_conversion_factor: 15.633302
  symmetry_tolerance: 1.00000e-05
  nac_unit_conversion_factor: 14.399652
  configuration:
    band: "auto"
    band_points: "101"
    cell_filename: "phonopy_params.yaml"
    band_const_interval: ".true."
    nac: ".true."
    read_force_constants: ".true."
    readfc_format: "hdf5"

physical_unit:
  atomic_mass: "AMU"
  length: "angstrom"
  force_constants: "eV/angstrom^2"

space_group:
  type: "Fm-3m"
  number: 225
  Hall_symbol: "-F 4 2 3"

primitive_matrix:
- [  0.000000000000000,  0.500000000000000,  0.500000000000000 ]
- [  0.500000000000000,  0.000000000000000,  0.500000000000000 ]
- [  0.500000000000000,  0.500000000000000,  0.000000000000000 ]

supercell_matrix:
- [   1,   0,   0 ]
- [   0,   1,   0 ]
- [   0,   0,   1 ]

primitive_cell:
  lattice:
  - [     0.000000000000000,     2.845150738087850,     2.845150738087850 ] # a
  - [     2.845150738087850,     0.000000000000000,     2.845150738087850 ] # b
  - [     2.845150738087850,     2.845150738087850,     0.000000000000000 ] # c
  points:
  - symbol: Na # 1
    coordinates: [  0.000000000000000,  0.000000000000000,  0.000000000000000 ]
    mass: 22.989769
  - symbol: Cl # 2
    coordinates: [  0.499999999999991,  0.499999999999991,  0.499999999999991 ]
    mass: 35.453000
  reciprocal_lattice: # without 2pi
  - [    -0.175737613233117,     0.175737613233117,     0.175737613233117 ] # a*
  - [     0.175737613233117,    -0.175737613233117,     0.175737613233117 ] # b*
  - [     0.175737613233117,     0.175737613233117,    -0.175737613233117 ] # c*

unit_cell:
  lattice:
  - [     5.690301476175700,     0.000000000000000,     0.000000000000000 ] # a
  - [     0.000000000000000,     5.690301476175700,     0.000000000000000 ] # b
  - [     0.000000000000000,     0.000000000000000,     5.690301476175700 ] # c
  points:
  - symbol: Na # 1
    coordinates: [  0.000000000000000,  0.000000000000000,  0.000000000000000 ]
    mass: 22.989769
    reduced_to: 1
  - symbol: Na # 2
    coordinates: [  0.000000000000000,  0.499999999999991,  0.499999999999991 ]
    mass: 22.989769
    reduced_to: 1
  - symbol: Na # 3
    coordinates: [  0.499999999999991,  0.000000000000000,  0.499999999999991 ]
    mass: 22.989769
    reduced_to: 1
  - symbol: Na # 4
    coordinates: [  0.499999999999991,  0.499999999999991,  0.000000000000000 ]
    mass: 22.989769
    reduced_to: 1
  - symbol: Cl # 5
    coordinates: [  0.499999999999991,  0.499999999999991,  0.499999999999991 ]
    mass: 35.453000
    reduced_to: 5
  - symbol: Cl # 6
    coordinates: [  0.499999999999991,  0.000000000000000,  0.000000000000000 ]
    mass: 35.453000
    reduced_to: 5
  - symbol: Cl # 7
    coordinates: [  0.000000000000000,  0.499999999999991,  0.000000000000000 ]
    mass: 35.453000
    reduced_to: 5
  - symbol: Cl # 8
    coordinates: [  0.000000000000000,  0.000000000000000,  0.499999999999991 ]
    mass: 35.453000
    reduced_to: 5

supercell:
  lattice:
  - [     5.690301476175700,     0.000000000000000,     0.000000000000000 ] # a
  - [     0.000000000000000,     5.690301476175700,     0.000000000000000 ] # b
  - [     0.000000000000000,     0.000000000000000,     5.690301476175700 ] # c
  points:
  - symbol: Na # 1
    coordinates: [  0.000000000000000,  0.000000000000000,  0.000000000000000 ]
    mass: 22.989769
    reduced_to: 1
  - symbol: Na # 2
    coordinates: [  0.000000000000000,  0.499999999999991,  0.499999999999991 ]
    mass: 22.989769
    reduced_to: 1
  - symbol: Na # 3
    coordinates: [  0.499999999999991,  0.000000000000000,  0.499999999999991 ]
    mass: 22.989769
    reduced_to: 1
  - symbol: Na # 4
    coordinates: [  0.499999999999991,  0.499999999999991,  0.000000000000000 ]
    mass: 22.989769
    reduced_to: 1
  - symbol: Cl # 5
    coordinates: [  0.499999999999991,  0.499999999999991,  0.499999999999991 ]
    mass: 35.453000
    reduced_to: 5
  - symbol: Cl # 6
    coordinates: [  0.499999999999991,  0.000000000000000,  0.000000000000000 ]
    mass: 35.453000
    reduced_to: 5
  - symbol: Cl # 7
    coordinates: [  0.000000000000000,  0.499999999999991,  0.000000000000000 ]
    mass: 35.453000
    reduced_to: 5
  - symbol: Cl # 8
    coordinates: [  0.000000000000000,  0.000000000000000,  0.499999999999991 ]
    mass: 35.453000
    reduced_to: 5
