phono3py:
  version: 2.1.0
  frequency_unit_conversion_factor: 15.633302
  symmetry_tolerance: 1.00000e-05
  nac_unit_conversion_factor: 14.399652
  configuration:
    cell_filename: "phono3py_params.yaml.xz"
    nac: ".true."
    mesh_numbers: "30"
    temperatures: "300"
    bterta: ".true."
    read_fc2: ".true."
    read_fc3: ".true."

physical_unit:
  atomic_mass: "AMU"
  length: "angstrom"

space_group:
  type: "Fm-3m"
  number: 225
  Hall_symbol: "-F 4 2 3"

primitive_matrix:
- [  0.000000000000000,  0.500000000000000,  0.500000000000000 ]
- [  0.500000000000000,  0.000000000000000,  0.500000000000000 ]
- [  0.500000000000000,  0.500000000000000,  0.000000000000000 ]

supercell_matrix:
- [   2,   0,   0 ]
- [   0,   2,   0 ]
- [   0,   0,   2 ]

primitive_cell:
  lattice:
  - [     0.000000000000000,     2.845150738087850,     2.845150738087850 ] # a
  - [     2.845150738087850,     0.000000000000000,     2.845150738087850 ] # b
  - [     2.845150738087850,     2.845150738087850,     0.000000000000000 ] # c
  points:
  - symbol: Na # 1
    coordinates: [  0.000000000000000,  0.000000000000000,  0.000000000000000 ]
    mass: 22.989769
  - symbol: Cl # 2
    coordinates: [  0.499999999999991,  0.499999999999991,  0.499999999999991 ]
    mass: 35.453000
  reciprocal_lattice: # without 2pi
  - [    -0.175737613233117,     0.175737613233117,     0.175737613233117 ] # a*
  - [     0.175737613233117,    -0.175737613233117,     0.175737613233117 ] # b*
  - [     0.175737613233117,     0.175737613233117,    -0.175737613233117 ] # c*

unit_cell:
  lattice:
  - [     5.690301476175700,     0.000000000000000,     0.000000000000000 ] # a
  - [     0.000000000000000,     5.690301476175700,     0.000000000000000 ] # b
  - [     0.000000000000000,     0.000000000000000,     5.690301476175700 ] # c
  points:
  - symbol: Na # 1
    coordinates: [  0.000000000000000,  0.000000000000000,  0.000000000000000 ]
    mass: 22.989769
    reduced_to: 1
  - symbol: Na # 2
    coordinates: [  0.000000000000000,  0.499999999999991,  0.499999999999991 ]
    mass: 22.989769
    reduced_to: 1
  - symbol: Na # 3
    coordinates: [  0.499999999999991,  0.000000000000000,  0.499999999999991 ]
    mass: 22.989769
    reduced_to: 1
  - symbol: Na # 4
    coordinates: [  0.499999999999991,  0.499999999999991,  0.000000000000000 ]
    mass: 22.989769
    reduced_to: 1
  - symbol: Cl # 5
    coordinates: [  0.499999999999991,  0.499999999999991,  0.499999999999991 ]
    mass: 35.453000
    reduced_to: 5
  - symbol: Cl # 6
    coordinates: [  0.499999999999991,  0.000000000000000,  0.000000000000000 ]
    mass: 35.453000
    reduced_to: 5
  - symbol: Cl # 7
    coordinates: [  0.000000000000000,  0.499999999999991,  0.000000000000000 ]
    mass: 35.453000
    reduced_to: 5
  - symbol: Cl # 8
    coordinates: [  0.000000000000000,  0.000000000000000,  0.499999999999991 ]
    mass: 35.453000
    reduced_to: 5

supercell:
  lattice:
  - [    11.380602952351399,     0.000000000000000,     0.000000000000000 ] # a
  - [     0.000000000000000,    11.380602952351399,     0.000000000000000 ] # b
  - [     0.000000000000000,     0.000000000000000,    11.380602952351399 ] # c
  points:
  - symbol: Na # 1
    coordinates: [  0.000000000000000,  0.000000000000000,  0.000000000000000 ]
    mass: 22.989769
    reduced_to: 1
  - symbol: Na # 2
    coordinates: [  0.500000000000000,  0.000000000000000,  0.000000000000000 ]
    mass: 22.989769
    reduced_to: 1
  - symbol: Na # 3
    coordinates: [  0.000000000000000,  0.500000000000000,  0.000000000000000 ]
    mass: 22.989769
    reduced_to: 1
  - symbol: Na # 4
    coordinates: [  0.500000000000000,  0.500000000000000,  0.000000000000000 ]
    mass: 22.989769
    reduced_to: 1
  - symbol: Na # 5
    coordinates: [  0.000000000000000,  0.000000000000000,  0.500000000000000 ]
    mass: 22.989769
    reduced_to: 1
  - symbol: Na # 6
    coordinates: [  0.500000000000000,  0.000000000000000,  0.500000000000000 ]
    mass: 22.989769
    reduced_to: 1
  - symbol: Na # 7
    coordinates: [  0.000000000000000,  0.500000000000000,  0.500000000000000 ]
    mass: 22.989769
    reduced_to: 1
  - symbol: Na # 8
    coordinates: [  0.500000000000000,  0.500000000000000,  0.500000000000000 ]
    mass: 22.989769
    reduced_to: 1
  - symbol: Na # 9
    coordinates: [  0.000000000000000,  0.249999999999996,  0.249999999999996 ]
    mass: 22.989769
    reduced_to: 1
  - symbol: Na # 10
    coordinates: [  0.500000000000000,  0.249999999999996,  0.249999999999996 ]
    mass: 22.989769
    reduced_to: 1
  - symbol: Na # 11
    coordinates: [  0.000000000000000,  0.749999999999996,  0.249999999999996 ]
    mass: 22.989769
    reduced_to: 1
  - symbol: Na # 12
    coordinates: [  0.500000000000000,  0.749999999999996,  0.249999999999996 ]
    mass: 22.989769
    reduced_to: 1
  - symbol: Na # 13
    coordinates: [  0.000000000000000,  0.249999999999996,  0.749999999999996 ]
    mass: 22.989769
    reduced_to: 1
  - symbol: Na # 14
    coordinates: [  0.500000000000000,  0.249999999999996,  0.749999999999996 ]
    mass: 22.989769
    reduced_to: 1
  - symbol: Na # 15
    coordinates: [  0.000000000000000,  0.749999999999996,  0.749999999999996 ]
    mass: 22.989769
    reduced_to: 1
  - symbol: Na # 16
    coordinates: [  0.500000000000000,  0.749999999999996,  0.749999999999996 ]
    mass: 22.989769
    reduced_to: 1
  - symbol: Na # 17
    coordinates: [  0.249999999999996,  0.000000000000000,  0.249999999999996 ]
    mass: 22.989769
    reduced_to: 1
  - symbol: Na # 18
    coordinates: [  0.749999999999996,  0.000000000000000,  0.249999999999996 ]
    mass: 22.989769
    reduced_to: 1
  - symbol: Na # 19
    coordinates: [  0.249999999999996,  0.500000000000000,  0.249999999999996 ]
    mass: 22.989769
    reduced_to: 1
  - symbol: Na # 20
    coordinates: [  0.749999999999996,  0.500000000000000,  0.249999999999996 ]
    mass: 22.989769
    reduced_to: 1
  - symbol: Na # 21
    coordinates: [  0.249999999999996,  0.000000000000000,  0.749999999999996 ]
    mass: 22.989769
    reduced_to: 1
  - symbol: Na # 22
    coordinates: [  0.749999999999996,  0.000000000000000,  0.749999999999996 ]
    mass: 22.989769
    reduced_to: 1
  - symbol: Na # 23
    coordinates: [  0.249999999999996,  0.500000000000000,  0.749999999999996 ]
    mass: 22.989769
    reduced_to: 1
  - symbol: Na # 24
    coordinates: [  0.749999999999996,  0.500000000000000,  0.749999999999996 ]
    mass: 22.989769
    reduced_to: 1
  - symbol: Na # 25
    coordinates: [  0.249999999999996,  0.249999999999996,  0.000000000000000 ]
    mass: 22.989769
    reduced_to: 1
  - symbol: Na # 26
    coordinates: [  0.749999999999996,  0.249999999999996,  0.000000000000000 ]
    mass: 22.989769
    reduced_to: 1
  - symbol: Na # 27
    coordinates: [  0.249999999999996,  0.749999999999996,  0.000000000000000 ]
    mass: 22.989769
    reduced_to: 1
  - symbol: Na # 28
    coordinates: [  0.749999999999996,  0.749999999999996,  0.000000000000000 ]
    mass: 22.989769
    reduced_to: 1
  - symbol: Na # 29
    coordinates: [  0.249999999999996,  0.249999999999996,  0.500000000000000 ]
    mass: 22.989769
    reduced_to: 1
  - symbol: Na # 30
    coordinates: [  0.749999999999996,  0.249999999999996,  0.500000000000000 ]
    mass: 22.989769
    reduced_to: 1
  - symbol: Na # 31
    coordinates: [  0.249999999999996,  0.749999999999996,  0.500000000000000 ]
    mass: 22.989769
    reduced_to: 1
  - symbol: Na # 32
    coordinates: [  0.749999999999996,  0.749999999999996,  0.500000000000000 ]
    mass: 22.989769
    reduced_to: 1
  - symbol: Cl # 33
    coordinates: [  0.249999999999996,  0.249999999999996,  0.249999999999996 ]
    mass: 35.453000
    reduced_to: 33
  - symbol: Cl # 34
    coordinates: [  0.749999999999996,  0.249999999999996,  0.249999999999996 ]
    mass: 35.453000
    reduced_to: 33
  - symbol: Cl # 35
    coordinates: [  0.249999999999996,  0.749999999999996,  0.249999999999996 ]
    mass: 35.453000
    reduced_to: 33
  - symbol: Cl # 36
    coordinates: [  0.749999999999996,  0.749999999999996,  0.249999999999996 ]
    mass: 35.453000
    reduced_to: 33
  - symbol: Cl # 37
    coordinates: [  0.249999999999996,  0.249999999999996,  0.749999999999996 ]
    mass: 35.453000
    reduced_to: 33
  - symbol: Cl # 38
    coordinates: [  0.749999999999996,  0.249999999999996,  0.749999999999996 ]
    mass: 35.453000
    reduced_to: 33
  - symbol: Cl # 39
    coordinates: [  0.249999999999996,  0.749999999999996,  0.749999999999996 ]
    mass: 35.453000
    reduced_to: 33
  - symbol: Cl # 40
    coordinates: [  0.749999999999996,  0.749999999999996,  0.749999999999996 ]
    mass: 35.453000
    reduced_to: 33
  - symbol: Cl # 41
    coordinates: [  0.249999999999996,  0.000000000000000,  0.000000000000000 ]
    mass: 35.453000
    reduced_to: 33
  - symbol: Cl # 42
    coordinates: [  0.749999999999996,  0.000000000000000,  0.000000000000000 ]
    mass: 35.453000
    reduced_to: 33
  - symbol: Cl # 43
    coordinates: [  0.249999999999996,  0.500000000000000,  0.000000000000000 ]
    mass: 35.453000
    reduced_to: 33
  - symbol: Cl # 44
    coordinates: [  0.749999999999996,  0.500000000000000,  0.000000000000000 ]
    mass: 35.453000
    reduced_to: 33
  - symbol: Cl # 45
    coordinates: [  0.249999999999996,  0.000000000000000,  0.500000000000000 ]
    mass: 35.453000
    reduced_to: 33
  - symbol: Cl # 46
    coordinates: [  0.749999999999996,  0.000000000000000,  0.500000000000000 ]
    mass: 35.453000
    reduced_to: 33
  - symbol: Cl # 47
    coordinates: [  0.249999999999996,  0.500000000000000,  0.500000000000000 ]
    mass: 35.453000
    reduced_to: 33
  - symbol: Cl # 48
    coordinates: [  0.749999999999996,  0.500000000000000,  0.500000000000000 ]
    mass: 35.453000
    reduced_to: 33
  - symbol: Cl # 49
    coordinates: [  0.000000000000000,  0.249999999999996,  0.000000000000000 ]
    mass: 35.453000
    reduced_to: 33
  - symbol: Cl # 50
    coordinates: [  0.500000000000000,  0.249999999999996,  0.000000000000000 ]
    mass: 35.453000
    reduced_to: 33
  - symbol: Cl # 51
    coordinates: [  0.000000000000000,  0.749999999999996,  0.000000000000000 ]
    mass: 35.453000
    reduced_to: 33
  - symbol: Cl # 52
    coordinates: [  0.500000000000000,  0.749999999999996,  0.000000000000000 ]
    mass: 35.453000
    reduced_to: 33
  - symbol: Cl # 53
    coordinates: [  0.000000000000000,  0.249999999999996,  0.500000000000000 ]
    mass: 35.453000
    reduced_to: 33
  - symbol: Cl # 54
    coordinates: [  0.500000000000000,  0.249999999999996,  0.500000000000000 ]
    mass: 35.453000
    reduced_to: 33
  - symbol: Cl # 55
    coordinates: [  0.000000000000000,  0.749999999999996,  0.500000000000000 ]
    mass: 35.453000
    reduced_to: 33
  - symbol: Cl # 56
    coordinates: [  0.500000000000000,  0.749999999999996,  0.500000000000000 ]
    mass: 35.453000
    reduced_to: 33
  - symbol: Cl # 57
    coordinates: [  0.000000000000000,  0.000000000000000,  0.249999999999996 ]
    mass: 35.453000
    reduced_to: 33
  - symbol: Cl # 58
    coordinates: [  0.500000000000000,  0.000000000000000,  0.249999999999996 ]
    mass: 35.453000
    reduced_to: 33
  - symbol: Cl # 59
    coordinates: [  0.000000000000000,  0.500000000000000,  0.249999999999996 ]
    mass: 35.453000
    reduced_to: 33
  - symbol: Cl # 60
    coordinates: [  0.500000000000000,  0.500000000000000,  0.249999999999996 ]
    mass: 35.453000
    reduced_to: 33
  - symbol: Cl # 61
    coordinates: [  0.000000000000000,  0.000000000000000,  0.749999999999996 ]
    mass: 35.453000
    reduced_to: 33
  - symbol: Cl # 62
    coordinates: [  0.500000000000000,  0.000000000000000,  0.749999999999996 ]
    mass: 35.453000
    reduced_to: 33
  - symbol: Cl # 63
    coordinates: [  0.000000000000000,  0.500000000000000,  0.749999999999996 ]
    mass: 35.453000
    reduced_to: 33
  - symbol: Cl # 64
    coordinates: [  0.500000000000000,  0.500000000000000,  0.749999999999996 ]
    mass: 35.453000
    reduced_to: 33

phonon_supercell_matrix:
- [   4,   0,   0 ]
- [   0,   4,   0 ]
- [   0,   0,   4 ]

phonon_primitive_cell:
  lattice:
  - [     0.000000000000000,     2.845150738087850,     2.845150738087850 ] # a
  - [     2.845150738087850,     0.000000000000000,     2.845150738087850 ] # b
  - [     2.845150738087850,     2.845150738087850,     0.000000000000000 ] # c
  points:
  - symbol: Na # 1
    coordinates: [  0.000000000000000,  0.000000000000000,  0.000000000000000 ]
    mass: 22.989769
  - symbol: Cl # 2
    coordinates: [  0.499999999999991,  0.499999999999991,  0.499999999999991 ]
    mass: 35.453000
  reciprocal_lattice: # without 2pi
  - [    -0.175737613233117,     0.175737613233117,     0.175737613233117 ] # a*
  - [     0.175737613233117,    -0.175737613233117,     0.175737613233117 ] # b*
  - [     0.175737613233117,     0.175737613233117,    -0.175737613233117 ] # c*

phonon_supercell:
  lattice:
  - [    22.761205904702798,     0.000000000000000,     0.000000000000000 ] # a
  - [     0.000000000000000,    22.761205904702798,     0.000000000000000 ] # b
  - [     0.000000000000000,     0.000000000000000,    22.761205904702798 ] # c
  points:
  - symbol: Na # 1
    coordinates: [  0.000000000000000,  0.000000000000000,  0.000000000000000 ]
    mass: 22.989769
    reduced_to: 1
  - symbol: Na # 2
    coordinates: [  0.250000000000000,  0.000000000000000,  0.000000000000000 ]
    mass: 22.989769
    reduced_to: 1
  - symbol: Na # 3
    coordinates: [  0.500000000000000,  0.000000000000000,  0.000000000000000 ]
    mass: 22.989769
    reduced_to: 1
  - symbol: Na # 4
    coordinates: [  0.750000000000000,  0.000000000000000,  0.000000000000000 ]
    mass: 22.989769
    reduced_to: 1
  - symbol: Na # 5
    coordinates: [  0.000000000000000,  0.250000000000000,  0.000000000000000 ]
    mass: 22.989769
    reduced_to: 1
  - symbol: Na # 6
    coordinates: [  0.250000000000000,  0.250000000000000,  0.000000000000000 ]
    mass: 22.989769
    reduced_to: 1
  - symbol: Na # 7
    coordinates: [  0.500000000000000,  0.250000000000000,  0.000000000000000 ]
    mass: 22.989769
    reduced_to: 1
  - symbol: Na # 8
    coordinates: [  0.750000000000000,  0.250000000000000,  0.000000000000000 ]
    mass: 22.989769
    reduced_to: 1
  - symbol: Na # 9
    coordinates: [  0.000000000000000,  0.500000000000000,  0.000000000000000 ]
    mass: 22.989769
    reduced_to: 1
  - symbol: Na # 10
    coordinates: [  0.250000000000000,  0.500000000000000,  0.000000000000000 ]
    mass: 22.989769
    reduced_to: 1
  - symbol: Na # 11
    coordinates: [  0.500000000000000,  0.500000000000000,  0.000000000000000 ]
    mass: 22.989769
    reduced_to: 1
  - symbol: Na # 12
    coordinates: [  0.750000000000000,  0.500000000000000,  0.000000000000000 ]
    mass: 22.989769
    reduced_to: 1
  - symbol: Na # 13
    coordinates: [  0.000000000000000,  0.750000000000000,  0.000000000000000 ]
    mass: 22.989769
    reduced_to: 1
  - symbol: Na # 14
    coordinates: [  0.250000000000000,  0.750000000000000,  0.000000000000000 ]
    mass: 22.989769
    reduced_to: 1
  - symbol: Na # 15
    coordinates: [  0.500000000000000,  0.750000000000000,  0.000000000000000 ]
    mass: 22.989769
    reduced_to: 1
  - symbol: Na # 16
    coordinates: [  0.750000000000000,  0.750000000000000,  0.000000000000000 ]
    mass: 22.989769
    reduced_to: 1
  - symbol: Na # 17
    coordinates: [  0.000000000000000,  0.000000000000000,  0.250000000000000 ]
    mass: 22.989769
    reduced_to: 1
  - symbol: Na # 18
    coordinates: [  0.250000000000000,  0.000000000000000,  0.250000000000000 ]
    mass: 22.989769
    reduced_to: 1
  - symbol: Na # 19
    coordinates: [  0.500000000000000,  0.000000000000000,  0.250000000000000 ]
    mass: 22.989769
    reduced_to: 1
  - symbol: Na # 20
    coordinates: [  0.750000000000000,  0.000000000000000,  0.250000000000000 ]
    mass: 22.989769
    reduced_to: 1
  - symbol: Na # 21
    coordinates: [  0.000000000000000,  0.250000000000000,  0.250000000000000 ]
    mass: 22.989769
    reduced_to: 1
  - symbol: Na # 22
    coordinates: [  0.250000000000000,  0.250000000000000,  0.250000000000000 ]
    mass: 22.989769
    reduced_to: 1
  - symbol: Na # 23
    coordinates: [  0.500000000000000,  0.250000000000000,  0.250000000000000 ]
    mass: 22.989769
    reduced_to: 1
  - symbol: Na # 24
    coordinates: [  0.750000000000000,  0.250000000000000,  0.250000000000000 ]
    mass: 22.989769
    reduced_to: 1
  - symbol: Na # 25
    coordinates: [  0.000000000000000,  0.500000000000000,  0.250000000000000 ]
    mass: 22.989769
    reduced_to: 1
  - symbol: Na # 26
    coordinates: [  0.250000000000000,  0.500000000000000,  0.250000000000000 ]
    mass: 22.989769
    reduced_to: 1
  - symbol: Na # 27
    coordinates: [  0.500000000000000,  0.500000000000000,  0.250000000000000 ]
    mass: 22.989769
    reduced_to: 1
  - symbol: Na # 28
    coordinates: [  0.750000000000000,  0.500000000000000,  0.250000000000000 ]
    mass: 22.989769
    reduced_to: 1
  - symbol: Na # 29
    coordinates: [  0.000000000000000,  0.750000000000000,  0.250000000000000 ]
    mass: 22.989769
    reduced_to: 1
  - symbol: Na # 30
    coordinates: [  0.250000000000000,  0.750000000000000,  0.250000000000000 ]
    mass: 22.989769
    reduced_to: 1
  - symbol: Na # 31
    coordinates: [  0.500000000000000,  0.750000000000000,  0.250000000000000 ]
    mass: 22.989769
    reduced_to: 1
  - symbol: Na # 32
    coordinates: [  0.750000000000000,  0.750000000000000,  0.250000000000000 ]
    mass: 22.989769
    reduced_to: 1
  - symbol: Na # 33
    coordinates: [  0.000000000000000,  0.000000000000000,  0.500000000000000 ]
    mass: 22.989769
    reduced_to: 1
  - symbol: Na # 34
    coordinates: [  0.250000000000000,  0.000000000000000,  0.500000000000000 ]
    mass: 22.989769
    reduced_to: 1
  - symbol: Na # 35
    coordinates: [  0.500000000000000,  0.000000000000000,  0.500000000000000 ]
    mass: 22.989769
    reduced_to: 1
  - symbol: Na # 36
    coordinates: [  0.750000000000000,  0.000000000000000,  0.500000000000000 ]
    mass: 22.989769
    reduced_to: 1
  - symbol: Na # 37
    coordinates: [  0.000000000000000,  0.250000000000000,  0.500000000000000 ]
    mass: 22.989769
    reduced_to: 1
  - symbol: Na # 38
    coordinates: [  0.250000000000000,  0.250000000000000,  0.500000000000000 ]
    mass: 22.989769
    reduced_to: 1
  - symbol: Na # 39
    coordinates: [  0.500000000000000,  0.250000000000000,  0.500000000000000 ]
    mass: 22.989769
    reduced_to: 1
  - symbol: Na # 40
    coordinates: [  0.750000000000000,  0.250000000000000,  0.500000000000000 ]
    mass: 22.989769
    reduced_to: 1
  - symbol: Na # 41
    coordinates: [  0.000000000000000,  0.500000000000000,  0.500000000000000 ]
    mass: 22.989769
    reduced_to: 1
  - symbol: Na # 42
    coordinates: [  0.250000000000000,  0.500000000000000,  0.500000000000000 ]
    mass: 22.989769
    reduced_to: 1
  - symbol: Na # 43
    coordinates: [  0.500000000000000,  0.500000000000000,  0.500000000000000 ]
    mass: 22.989769
    reduced_to: 1
  - symbol: Na # 44
    coordinates: [  0.750000000000000,  0.500000000000000,  0.500000000000000 ]
    mass: 22.989769
    reduced_to: 1
  - symbol: Na # 45
    coordinates: [  0.000000000000000,  0.750000000000000,  0.500000000000000 ]
    mass: 22.989769
    reduced_to: 1
  - symbol: Na # 46
    coordinates: [  0.250000000000000,  0.750000000000000,  0.500000000000000 ]
    mass: 22.989769
    reduced_to: 1
  - symbol: Na # 47
    coordinates: [  0.500000000000000,  0.750000000000000,  0.500000000000000 ]
    mass: 22.989769
    reduced_to: 1
  - symbol: Na # 48
    coordinates: [  0.750000000000000,  0.750000000000000,  0.500000000000000 ]
    mass: 22.989769
    reduced_to: 1
  - symbol: Na # 49
    coordinates: [  0.000000000000000,  0.000000000000000,  0.750000000000000 ]
    mass: 22.989769
    reduced_to: 1
  - symbol: Na # 50
    coordinates: [  0.250000000000000,  0.000000000000000,  0.750000000000000 ]
    mass: 22.989769
    reduced_to: 1
  - symbol: Na # 51
    coordinates: [  0.500000000000000,  0.000000000000000,  0.750000000000000 ]
    mass: 22.989769
    reduced_to: 1
  - symbol: Na # 52
    coordinates: [  0.750000000000000,  0.000000000000000,  0.750000000000000 ]
    mass: 22.989769
    reduced_to: 1
  - symbol: Na # 53
    coordinates: [  0.000000000000000,  0.250000000000000,  0.750000000000000 ]
    mass: 22.989769
    reduced_to: 1
  - symbol: Na # 54
    coordinates: [  0.250000000000000,  0.250000000000000,  0.750000000000000 ]
    mass: 22.989769
    reduced_to: 1
  - symbol: Na # 55
    coordinates: [  0.500000000000000,  0.250000000000000,  0.750000000000000 ]
    mass: 22.989769
    reduced_to: 1
  - symbol: Na # 56
    coordinates: [  0.750000000000000,  0.250000000000000,  0.750000000000000 ]
    mass: 22.989769
    reduced_to: 1
  - symbol: Na # 57
    coordinates: [  0.000000000000000,  0.500000000000000,  0.750000000000000 ]
    mass: 22.989769
    reduced_to: 1
  - symbol: Na # 58
    coordinates: [  0.250000000000000,  0.500000000000000,  0.750000000000000 ]
    mass: 22.989769
    reduced_to: 1
  - symbol: Na # 59
    coordinates: [  0.500000000000000,  0.500000000000000,  0.750000000000000 ]
    mass: 22.989769
    reduced_to: 1
  - symbol: Na # 60
    coordinates: [  0.750000000000000,  0.500000000000000,  0.750000000000000 ]
    mass: 22.989769
    reduced_to: 1
  - symbol: Na # 61
    coordinates: [  0.000000000000000,  0.750000000000000,  0.750000000000000 ]
    mass: 22.989769
    reduced_to: 1
  - symbol: Na # 62
    coordinates: [  0.250000000000000,  0.750000000000000,  0.750000000000000 ]
    mass: 22.989769
    reduced_to: 1
  - symbol: Na # 63
    coordinates: [  0.500000000000000,  0.750000000000000,  0.750000000000000 ]
    mass: 22.989769
    reduced_to: 1
  - symbol: Na # 64
    coordinates: [  0.750000000000000,  0.750000000000000,  0.750000000000000 ]
    mass: 22.989769
    reduced_to: 1
  - symbol: Na # 65
    coordinates: [  0.000000000000000,  0.124999999999998,  0.124999999999998 ]
    mass: 22.989769
    reduced_to: 1
  - symbol: Na # 66
    coordinates: [  0.250000000000000,  0.124999999999998,  0.124999999999998 ]
    mass: 22.989769
    reduced_to: 1
  - symbol: Na # 67
    coordinates: [  0.500000000000000,  0.124999999999998,  0.124999999999998 ]
    mass: 22.989769
    reduced_to: 1
  - symbol: Na # 68
    coordinates: [  0.750000000000000,  0.124999999999998,  0.124999999999998 ]
    mass: 22.989769
    reduced_to: 1
  - symbol: Na # 69
    coordinates: [  0.000000000000000,  0.374999999999998,  0.124999999999998 ]
    mass: 22.989769
    reduced_to: 1
  - symbol: Na # 70
    coordinates: [  0.250000000000000,  0.374999999999998,  0.124999999999998 ]
    mass: 22.989769
    reduced_to: 1
  - symbol: Na # 71
    coordinates: [  0.500000000000000,  0.374999999999998,  0.124999999999998 ]
    mass: 22.989769
    reduced_to: 1
  - symbol: Na # 72
    coordinates: [  0.750000000000000,  0.374999999999998,  0.124999999999998 ]
    mass: 22.989769
    reduced_to: 1
  - symbol: Na # 73
    coordinates: [  0.000000000000000,  0.624999999999998,  0.124999999999998 ]
    mass: 22.989769
    reduced_to: 1
  - symbol: Na # 74
    coordinates: [  0.250000000000000,  0.624999999999998,  0.124999999999998 ]
    mass: 22.989769
    reduced_to: 1
  - symbol: Na # 75
    coordinates: [  0.500000000000000,  0.624999999999998,  0.124999999999998 ]
    mass: 22.989769
    reduced_to: 1
  - symbol: Na # 76
    coordinates: [  0.750000000000000,  0.624999999999998,  0.124999999999998 ]
    mass: 22.989769
    reduced_to: 1
  - symbol: Na # 77
    coordinates: [  0.000000000000000,  0.874999999999998,  0.124999999999998 ]
    mass: 22.989769
    reduced_to: 1
  - symbol: Na # 78
    coordinates: [  0.250000000000000,  0.874999999999998,  0.124999999999998 ]
    mass: 22.989769
    reduced_to: 1
  - symbol: Na # 79
    coordinates: [  0.500000000000000,  0.874999999999998,  0.124999999999998 ]
    mass: 22.989769
    reduced_to: 1
  - symbol: Na # 80
    coordinates: [  0.750000000000000,  0.874999999999998,  0.124999999999998 ]
    mass: 22.989769
    reduced_to: 1
  - symbol: Na # 81
    coordinates: [  0.000000000000000,  0.124999999999998,  0.374999999999998 ]
    mass: 22.989769
    reduced_to: 1
  - symbol: Na # 82
    coordinates: [  0.250000000000000,  0.124999999999998,  0.374999999999998 ]
    mass: 22.989769
    reduced_to: 1
  - symbol: Na # 83
    coordinates: [  0.500000000000000,  0.124999999999998,  0.374999999999998 ]
    mass: 22.989769
    reduced_to: 1
  - symbol: Na # 84
    coordinates: [  0.750000000000000,  0.124999999999998,  0.374999999999998 ]
    mass: 22.989769
    reduced_to: 1
  - symbol: Na # 85
    coordinates: [  0.000000000000000,  0.374999999999998,  0.374999999999998 ]
    mass: 22.989769
    reduced_to: 1
  - symbol: Na # 86
    coordinates: [  0.250000000000000,  0.374999999999998,  0.374999999999998 ]
    mass: 22.989769
    reduced_to: 1
  - symbol: Na # 87
    coordinates: [  0.500000000000000,  0.374999999999998,  0.374999999999998 ]
    mass: 22.989769
    reduced_to: 1
  - symbol: Na # 88
    coordinates: [  0.750000000000000,  0.374999999999998,  0.374999999999998 ]
    mass: 22.989769
    reduced_to: 1
  - symbol: Na # 89
    coordinates: [  0.000000000000000,  0.624999999999998,  0.374999999999998 ]
    mass: 22.989769
    reduced_to: 1
  - symbol: Na # 90
    coordinates: [  0.250000000000000,  0.624999999999998,  0.374999999999998 ]
    mass: 22.989769
    reduced_to: 1
  - symbol: Na # 91
    coordinates: [  0.500000000000000,  0.624999999999998,  0.374999999999998 ]
    mass: 22.989769
    reduced_to: 1
  - symbol: Na # 92
    coordinates: [  0.750000000000000,  0.624999999999998,  0.374999999999998 ]
    mass: 22.989769
    reduced_to: 1
  - symbol: Na # 93
    coordinates: [  0.000000000000000,  0.874999999999998,  0.374999999999998 ]
    mass: 22.989769
    reduced_to: 1
  - symbol: Na # 94
    coordinates: [  0.250000000000000,  0.874999999999998,  0.374999999999998 ]
    mass: 22.989769
    reduced_to: 1
  - symbol: Na # 95
    coordinates: [  0.500000000000000,  0.874999999999998,  0.374999999999998 ]
    mass: 22.989769
    reduced_to: 1
  - symbol: Na # 96
    coordinates: [  0.750000000000000,  0.874999999999998,  0.374999999999998 ]
    mass: 22.989769
    reduced_to: 1
  - symbol: Na # 97
    coordinates: [  0.000000000000000,  0.124999999999998,  0.624999999999998 ]
    mass: 22.989769
    reduced_to: 1
  - symbol: Na # 98
    coordinates: [  0.250000000000000,  0.124999999999998,  0.624999999999998 ]
    mass: 22.989769
    reduced_to: 1
  - symbol: Na # 99
    coordinates: [  0.500000000000000,  0.124999999999998,  0.624999999999998 ]
    mass: 22.989769
    reduced_to: 1
  - symbol: Na # 100
    coordinates: [  0.750000000000000,  0.124999999999998,  0.624999999999998 ]
    mass: 22.989769
    reduced_to: 1
  - symbol: Na # 101
    coordinates: [  0.000000000000000,  0.374999999999998,  0.624999999999998 ]
    mass: 22.989769
    reduced_to: 1
  - symbol: Na # 102
    coordinates: [  0.250000000000000,  0.374999999999998,  0.624999999999998 ]
    mass: 22.989769
    reduced_to: 1
  - symbol: Na # 103
    coordinates: [  0.500000000000000,  0.374999999999998,  0.624999999999998 ]
    mass: 22.989769
    reduced_to: 1
  - symbol: Na # 104
    coordinates: [  0.750000000000000,  0.374999999999998,  0.624999999999998 ]
    mass: 22.989769
    reduced_to: 1
  - symbol: Na # 105
    coordinates: [  0.000000000000000,  0.624999999999998,  0.624999999999998 ]
    mass: 22.989769
    reduced_to: 1
  - symbol: Na # 106
    coordinates: [  0.250000000000000,  0.624999999999998,  0.624999999999998 ]
    mass: 22.989769
    reduced_to: 1
  - symbol: Na # 107
    coordinates: [  0.500000000000000,  0.624999999999998,  0.624999999999998 ]
    mass: 22.989769
    reduced_to: 1
  - symbol: Na # 108
    coordinates: [  0.750000000000000,  0.624999999999998,  0.624999999999998 ]
    mass: 22.989769
    reduced_to: 1
  - symbol: Na # 109
    coordinates: [  0.000000000000000,  0.874999999999998,  0.624999999999998 ]
    mass: 22.989769
    reduced_to: 1
  - symbol: Na # 110
    coordinates: [  0.250000000000000,  0.874999999999998,  0.624999999999998 ]
    mass: 22.989769
    reduced_to: 1
  - symbol: Na # 111
    coordinates: [  0.500000000000000,  0.874999999999998,  0.624999999999998 ]
    mass: 22.989769
    reduced_to: 1
  - symbol: Na # 112
    coordinates: [  0.750000000000000,  0.874999999999998,  0.624999999999998 ]
    mass: 22.989769
    reduced_to: 1
  - symbol: Na # 113
    coordinates: [  0.000000000000000,  0.124999999999998,  0.874999999999998 ]
    mass: 22.989769
    reduced_to: 1
  - symbol: Na # 114
    coordinates: [  0.250000000000000,  0.124999999999998,  0.874999999999998 ]
    mass: 22.989769
    reduced_to: 1
  - symbol: Na # 115
    coordinates: [  0.500000000000000,  0.124999999999998,  0.874999999999998 ]
    mass: 22.989769
    reduced_to: 1
  - symbol: Na # 116
    coordinates: [  0.750000000000000,  0.124999999999998,  0.874999999999998 ]
    mass: 22.989769
    reduced_to: 1
  - symbol: Na # 117
    coordinates: [  0.000000000000000,  0.374999999999998,  0.874999999999998 ]
    mass: 22.989769
    reduced_to: 1
  - symbol: Na # 118
    coordinates: [  0.250000000000000,  0.374999999999998,  0.874999999999998 ]
    mass: 22.989769
    reduced_to: 1
  - symbol: Na # 119
    coordinates: [  0.500000000000000,  0.374999999999998,  0.874999999999998 ]
    mass: 22.989769
    reduced_to: 1
  - symbol: Na # 120
    coordinates: [  0.750000000000000,  0.374999999999998,  0.874999999999998 ]
    mass: 22.989769
    reduced_to: 1
  - symbol: Na # 121
    coordinates: [  0.000000000000000,  0.624999999999998,  0.874999999999998 ]
    mass: 22.989769
    reduced_to: 1
  - symbol: Na # 122